1485
Lattice="52.33669 0.0 0.0 0.0 52.33669 0.0 0.0 0.0 52.33669" Properties=species:S:1:pos:R:3:forces:R:3 name=input-465-246-1 pressure=0.0 energy=-13249.263671875 spacegroup=P1 times_found=1 stress="-3.58528079232201e-05 -8.627898059785367e-05 1.1610118963290007e-05 -8.627898059785367e-05 -1.3506859249901027e-05 7.908231782494114e-06 1.1610118963290007e-05 7.908231782494114e-06 6.202690419740975e-05" free_energy=-13249.263671875 pbc="T T T"
Ir      26.20436654      26.10221628      26.05990950      -0.00876176      -0.00175142      -0.00056314
Ir      28.25366448      26.15713911      24.86406317       0.00157394      -0.00549322       0.00242414
Ir      28.25660999      26.14568257      27.42009713      -0.00979805       0.00116325      -0.00598323
Ir      24.07423534      26.17402610      24.84801770      -0.00204680      -0.00043956      -0.00008751
Ir      24.08988443      26.14539579      27.41942237       0.00140965      -0.00328947      -0.00043184
Ir      24.89897401      28.22270661      26.12577343       0.00584772       0.00021505       0.00427177
Ir      27.45717727      28.23561419      26.13399108       0.00362098       0.00022388      -0.00044193
Ir      24.88465281      24.06120172      26.14138944      -0.00382069       0.00071551       0.00237052
Ir      27.48172310      24.03911535      26.14336837       0.00117844       0.01033854       0.00023378
Ir      26.18312825      24.87664495      28.21272076      -0.00273042      -0.00336933      -0.00023663
Ir      26.17768171      27.45545315      28.23206534       0.00001262       0.00644964       0.00010830
Ir      26.17697576      24.89561807      24.11299819      -0.00148451       0.00343841      -0.00416327
Ir      26.16652498      27.47442970      24.02230987       0.00302407      -0.00219941       0.00267068
Ir      30.38070667      26.15430366      23.55923092       0.00494349      -0.00068195      -0.00061699
Ir      30.47969083      26.17732123      26.14947871       0.01222296       0.00113250      -0.00346919
Ir      30.38382355      26.15370268      28.77072904       0.00281292      -0.00159204       0.00640791
Ir      21.94565444      26.15941221      23.53299725      -0.00076546      -0.00139815       0.00204390
Ir      21.85579368      26.18647175      26.14033120      -0.00699326       0.00180767      -0.00092526
Ir      21.95856149      26.14918251      28.74005978       0.00463815      -0.00212301       0.00081475
Ir      23.54646629      30.39564807      26.13919782      -0.00459662      -0.00036271       0.00296714
Ir      26.16802698      30.48040218      26.15194865      -0.00298042       0.01166794       0.00647677
Ir      28.77904757      30.37825433      26.16355667       0.00049911      -0.00316876       0.00394725
Ir      23.57319284      21.92086978      26.12237365       0.00148130       0.00176352       0.00216455
Ir      26.18795081      21.83777551      26.15882778       0.00337460       0.00087282       0.00411539
Ir      28.80297995      21.91789303      26.17768021      -0.00208958       0.00147313       0.00308427
Ir      26.17284373      23.53582942      30.36801160      -0.00037751       0.00191082      -0.00553674
Ir      26.16009792      26.20103416      30.47795597      -0.00083384      -0.00499567       0.00517958
Ir      26.16908282      28.79288748      30.37815584       0.00419297      -0.00505590      -0.00060043
Ir      26.26488818      23.55031180      21.87647218       0.00380194       0.00332508       0.00356013
Ir      26.18326283      26.13674494      21.87720910      -0.00136619       0.00188525      -0.00193390
Ir      26.15750968      28.80392591      21.93887418      -0.00151318      -0.00264440       0.00355068
Ir      28.30724830      24.85443673      29.67492124      -0.00289506      -0.00170487       0.00430486
Ir      28.31563232      27.49654115      29.63633222       0.00913735       0.00339634       0.00430000
Ir      28.31329742      24.79368002      22.60355428      -0.00549313       0.00473233      -0.00360117
Ir      28.33558588      27.46748395      22.67963661       0.00576970      -0.00166651       0.00197633
Ir      24.03994840      24.83771961      29.65496392      -0.00411100       0.00382794       0.00159641
Ir      24.02204114      27.49251678      29.62709761       0.00227043       0.00041528      -0.00105137
Ir      24.03495110      24.85953667      22.64380546      -0.00470401      -0.00190172      -0.00482408
Ir      24.00090591      27.53627976      22.66349877      -0.01053026      -0.00325063       0.00175101
Ir      29.64190285      28.32380583      24.80110602       0.00878938       0.00146442      -0.00241329
Ir      29.64803870      28.33206585      27.49885034      -0.00372279      -0.00382172       0.00151439
Ir      22.67359916      28.34417357      24.80458623       0.00262926      -0.00443256      -0.00067051
Ir      22.69543708      28.33500745      27.47381633      -0.00008968       0.00032896       0.00125268
Ir      29.65309035      24.02165778      24.79915838       0.00382698       0.00353801      -0.00432895
Ir      29.65624842      24.01440408      27.51242578       0.00311260      -0.01039707      -0.00081688
Ir      22.67489683      24.01782021      24.82227732      -0.00471398      -0.00113012      -0.00322426
Ir      22.69535916      23.99446127      27.47659690      -0.00148833       0.00469511      -0.00386867
Ir      24.83686413      29.64032818      28.30524333      -0.00398025       0.00015651      -0.00677301
Ir      27.48403422      29.65469120      28.31231653      -0.00046644      -0.00092570       0.00502181
Ir      24.83052993      22.67756963      28.31276284      -0.00740045      -0.00800545      -0.00026785
Ir      27.51936239      22.67735447      28.32833682      -0.00121325      -0.00728204      -0.00736888
Ir      24.81556260      29.69181489      24.00931371      -0.00556885       0.00178745      -0.00359933
Ir      27.47982374      29.67969602      24.00922488       0.00220577      -0.00246745      -0.00239170
Ir      24.85221676      22.67304549      23.97311270      -0.00445965      -0.00105934      -0.00704715
Ir      27.48606047      22.71645715      23.98782340       0.00609337      -0.00047133      -0.00850803
Ir      32.61550998      26.16535930      22.19291587       0.00097855      -0.00056973       0.00364707
Ir      32.70020510      26.15826870      24.85183890       0.00040803      -0.00346351      -0.00360620
Ir      32.68354332      26.16598832      27.48855831      -0.00213975      -0.00220435      -0.00243303
Ir      32.59745865      26.16630334      30.13756689      -0.00315592       0.00545301       0.00020188
Ir      19.72646924      26.17015852      22.17196279      -0.00181527      -0.00200323       0.00219319
Ir      19.64453901      26.16880476      24.82017899      -0.00110647      -0.00288700      -0.00328594
Ir      19.64282666      26.17927843      27.47542932       0.00564623       0.00154430       0.00022301
Ir      19.72064352      26.14880638      30.11560229       0.00388503       0.00204938       0.00501087
Ir      22.17510793      32.62393550      26.12857296       0.00015470       0.00127482      -0.00068396
Ir      24.83519937      32.70427607      26.13461894       0.00055747      -0.00096416       0.00427225
Ir      27.48492008      32.69278798      26.15897849      -0.00044500      -0.00331660      -0.00144436
Ir      30.14016516      32.59101443      26.16965050      -0.00998270      -0.00834598      -0.00046137
Ir      22.20711544      19.71058197      26.14860962       0.00074056       0.00739004       0.00237498
Ir      24.85564671      19.62492896      26.15152585       0.00674756       0.00385615       0.00014710
Ir      27.51439926      19.63183318      26.16757680       0.00468266       0.00255362      -0.00244164
Ir      30.17430975      19.71019517      26.17791148      -0.00142018      -0.00072933       0.00442643
Ir      26.17090146      22.16363925      32.59452293      -0.00685426       0.00028863      -0.00284813
Ir      26.16710299      24.83854685      32.66879381       0.00043210       0.00537957      -0.00234328
Ir      26.16788459      27.56313086      32.72386658      -0.00081518       0.00057759      -0.00627369
Ir      26.15638851      30.10623042      32.64557990       0.00141069      -0.00313024      -0.00155592
Ir      26.18767098      22.19356469      19.73814050       0.00045131       0.00068027       0.00828016
Ir      26.22141024      24.82935345      19.66725219      -0.00196815      -0.00025813       0.00008629
Ir      26.19197877      27.51325557      19.64893440       0.00641317      -0.00230339       0.00335781
Ir      26.17335697      30.18688236      19.70279000       0.00223951       0.00532413      -0.00836454
Ir      30.49557112      24.81109696      31.04094309       0.00135807      -0.00368074       0.00669565
Ir      28.35820801      23.45830141      31.86270766       0.00014487      -0.00077716      -0.00164677
Ir      30.50165040      27.50812125      31.03223102       0.00424874      -0.00252995      -0.00078972
Ir      28.33826889      26.17343855      31.90693526      -0.00370145      -0.00034120      -0.00657305
Ir      28.35465295      28.83750301      31.83405711       0.00428080      -0.00169189      -0.00136707
Ir      30.47311779      24.81068407      21.32149803       0.00415486      -0.00049260      -0.00177878
Ir      30.51571507      27.52088543      21.30928838       0.00116341       0.00084239       0.00541686
Ir      28.37966996      26.09915435      20.45542239      -0.00424535      -0.00057626      -0.00207606
Ir      28.36696025      28.86038082      20.47741675      -0.00236352       0.00491658      -0.00130104
Ir      21.84009574      24.80556723      30.99841861      -0.00404302       0.00131286       0.00085500
Ir      23.98579501      23.46264176      31.83841855      -0.00353154       0.00371146      -0.00737674
Ir      21.81476771      27.50152105      31.00041958       0.00059545      -0.00409355      -0.00620005
Ir      23.98888514      26.16645454      31.88976563       0.00468294       0.00350283      -0.00757566
Ir      23.98602539      28.81482591      31.82564763       0.00186376       0.00030832       0.00259574
Ir      21.83202487      24.81106906      21.28456031      -0.00126687       0.00092309       0.00063623
Ir      23.99210461      23.48452646      20.46341140       0.00337464      -0.00018814      -0.00228050
Ir      21.82018629      27.54358683      21.27630899       0.00207891      -0.00125961       0.00737232
Ir      23.97958921      26.18056642      20.43212066      -0.00702996      -0.00126348      -0.00015628
Ir      23.99452892      28.88449685      20.46512414      -0.00115262       0.00209826      -0.00268073
Ir      31.02832236      30.49833575      24.81079197      -0.00073607      -0.00173827      -0.00137137
Ir      31.84488108      28.37047423      23.48869124      -0.00454877       0.00311184      -0.00234456
Ir      31.04302668      30.50889387      27.53615790       0.00118633       0.00274468       0.00293544
Ir      31.87915159      28.36041986      26.16437333      -0.00327250      -0.00679325      -0.00106349
Ir      31.85226398      28.34930709      28.84317899      -0.00118653       0.00405563      -0.00538517
Ir      21.28776607      30.55439027      24.74003895      -0.00762562       0.00344124       0.00025512
Ir      20.47976458      28.38069708      23.45151388       0.00517581      -0.00214724      -0.00218998
Ir      21.28988738      30.51146509      27.47602472       0.00080232       0.00061658      -0.00292484
Ir      20.44616585      28.37275792      26.13558022      -0.00090224      -0.00241693      -0.00267032
Ir      20.48351235      28.33719930      28.82488632      -0.00071608       0.00350611       0.00161636
Ir      31.04757841      21.82996418      24.80738710      -0.00714620      -0.00643300       0.00247768
Ir      31.86408088      23.97106850      23.48207480      -0.00835836       0.00552779       0.00631944
Ir      31.04195994      21.83252882      27.50957986      -0.00493649      -0.00331816      -0.00064634
Ir      31.87104247      23.97556955      26.16753914       0.00243334       0.00155124      -0.00791657
Ir      31.85718759      23.96472539      28.84706504       0.00677132      -0.00275315      -0.00381869
Ir      21.30885546      21.82205205      24.77849380      -0.00092716      -0.00274360      -0.00423151
Ir      20.47371475      23.97135969      23.45984806       0.00130619      -0.00427225      -0.00178548
Ir      21.31649385      21.81467194      27.48071904      -0.00187328       0.00062439       0.01053871
Ir      20.45811118      23.99376990      26.15157290       0.00065887       0.00573778      -0.00259650
Ir      20.48968809      23.97151232      28.81410395       0.00238922      -0.00039269       0.00676658
Ir      24.78978090      31.03748675      30.46453293      -0.00341570      -0.00429474       0.00322309
Ir      23.48079061      31.85187175      28.31565269      -0.00321221      -0.00375259       0.00284197
Ir      27.54576516      31.04056872      30.48727619       0.00005873      -0.00268401       0.00397918
Ir      26.15474558      31.88157212      28.33622460      -0.00255982      -0.00790231      -0.00595584
Ir      28.85463764      31.85481196      28.34913234      -0.00708649      -0.00129006      -0.00495839
Ir      24.83977223      21.26977070      30.49052101      -0.00061151       0.00180732       0.00178344
Ir      23.50644883      20.46327627      28.33381156      -0.00515965      -0.00178002       0.00471153
Ir      27.54070881      21.27162455      30.50213150       0.00663696       0.00108487       0.00614784
Ir      26.19235411      20.43517055      28.34673975      -0.00161493       0.00432457       0.00549703
Ir      28.85896754      20.46397737      28.35794293       0.00355411      -0.00465506      -0.00910507
Ir      24.80909567      31.05978550      21.79846673      -0.00592977      -0.00591290      -0.00035408
Ir      23.44570075      31.90884249      23.92296956      -0.00328299      -0.00724168      -0.00179291
Ir      27.51353739      31.04211564      21.80730485       0.00008591       0.00117022       0.00685085
Ir      26.15844101      31.90942271      23.96321946      -0.00028792       0.00016563       0.00216405
Ir      28.83949705      31.85588225      23.97725559       0.00070111       0.00131050       0.00102023
Ir      24.83554039      21.27692421      21.81559586      -0.00172181       0.00037275       0.00090092
Ir      23.48281303      20.46961029      23.95107908       0.00544102       0.00252469       0.00186742
Ir      27.55102706      21.33605554      21.81348124       0.00190606       0.00262341      -0.00106315
Ir      26.17518055      20.43414557      23.97649799       0.00017162      -0.00359158      -0.00329012
Ir      28.86674212      20.49333720      23.97661350      -0.00033849      -0.00279332       0.00596239
Ir      29.70688419      22.62755517      29.70051768      -0.00158197      -0.00749393       0.00010887
Ir      29.70801935      29.71232727      29.69628635      -0.00285395      -0.00482929       0.00584859
Ir      29.67870224      22.66764753      22.56230909       0.00015290       0.00307222      -0.00046349
Ir      29.67579508      29.71643120      22.62070963       0.00834313       0.00336982       0.00074789
Ir      22.63432911      22.61101247      29.67274734      -0.00290500      -0.00273227      -0.00082833
Ir      22.62106146      29.70591650      29.66988209       0.00117821      -0.00349654      -0.00069402
Ir      22.64302655      22.63342715      22.60166114       0.00359020       0.00031452      -0.00138188
Ir      22.60949552      29.74697769      22.59258938      -0.00484537       0.00281635       0.00107928
Ir      34.91587204      26.17883638      20.79845999       0.01260424      -0.00062930      -0.00046296
Ir      34.97407108      26.17634522      23.47619047      -0.00159687      -0.00443845      -0.00242904
Ir      35.00205208      26.17761025      26.17248497      -0.00071180      -0.00021906       0.00534010
Ir      34.94388288      26.17190744      28.85869058      -0.00200016      -0.00196971       0.00609624
Ir      34.88886862      26.17376525      31.54379680       0.00660726      -0.00344001       0.00183209
Ir      17.44807120      26.16447038      20.76238992       0.00417428       0.00417792       0.00277416
Ir      17.38014011      26.16365098      23.45783364       0.00583935      -0.00295176      -0.00132790
Ir      17.33917144      26.18079208      26.14442843       0.00145337      -0.00189053       0.00108504
Ir      17.38149199      26.18216139      28.83818353      -0.00195152      -0.00581492      -0.00185553
Ir      17.42969387      26.18855768      31.51538091       0.00104937       0.00016822      -0.00267767
Ir      20.76145127      34.90702600      26.17270141      -0.00169257      -0.00582752      -0.00011961
Ir      23.47549081      34.96244544      26.14403371      -0.00071242      -0.00078301       0.00197169
Ir      26.16714322      35.00040366      26.17421663      -0.00156721       0.00178507      -0.00394884
Ir      28.86614788      34.94180910      26.17967057      -0.00478940      -0.00333136      -0.00209274
Ir      31.55402635      34.88042829      26.18106613      -0.00477707       0.00388479      -0.00530977
Ir      20.80257517      17.42666560      26.15005552      -0.00458506      -0.00282912       0.00326163
Ir      23.49445529      17.36471524      26.14891232      -0.00492843      -0.00566247       0.00171926
Ir      26.19273796      17.32648577      26.15236806       0.00136599      -0.00035277       0.00452197
Ir      28.88794811      17.37871173      26.17333428       0.01235756      -0.00488898      -0.00208409
Ir      31.59206286      17.43701533      26.17073477      -0.01096279      -0.00380658       0.00018033
Ir      26.15706735      20.75093392      34.89911317       0.00272695       0.00064261      -0.00730892
Ir      26.17146761      23.44417985      34.93687135      -0.00210908      -0.00777886       0.00034948
Ir      26.16470767      26.17155138      34.96312911      -0.00082515      -0.00397440       0.00249273
Ir      26.15245873      31.50271367      34.84948434      -0.00063955       0.00245506      -0.00708184
Ir      26.16074736      20.78641256      17.43615452      -0.00096476       0.00489581      -0.00083607
Ir      26.21427138      23.47056283      17.39733348       0.00083600      -0.00055351       0.00022212
Ir      26.19219618      26.16646516      17.35151162       0.00258505      -0.00461730      -0.00171754
Ir      26.21811181      28.87974783      17.38256828      -0.00038919       0.00168531       0.00517002
Ir      26.20019366      31.56341410      17.44739405       0.00210059       0.00809968       0.00983247
Ir      32.73663150      24.81109207      32.44222139       0.00209572       0.00225419       0.00040286
Ir      30.58142525      23.42031092      33.32575266       0.00104570       0.00382686       0.00075044
Ir      28.38662201      22.07223372      34.12199579       0.00442559       0.00111527       0.00150771
Ir      32.73692839      27.53540746      32.43353886      -0.00441684      -0.00249024       0.00196668
Ir      30.58980136      26.16617247      33.33291792       0.00045419      -0.00000815      -0.00230844
Ir      28.38516066      24.79536153      34.16522616       0.00347732      -0.00250839      -0.00427664
Ir      30.58102737      28.89794282      33.30979440      -0.00360391      -0.00915152      -0.00880978
Ir      28.32302583      27.55910276      34.15647426      -0.00038197      -0.00237341       0.00372463
Ir      28.34336562      30.20013690      34.08879857      -0.00238476       0.00197370      -0.00009014
Ir      32.73953189      24.80104951      19.90877945      -0.00107251      -0.00241867      -0.00522707
Ir      30.52447461      23.45477137      19.10834207       0.00297153       0.00347112       0.00972432
Ir      28.35295293      22.14981331      18.33117818       0.00597163       0.00609921      -0.00401857
Ir      32.75141873      27.53766023      19.90519927       0.00336266       0.00283818       0.00355308
Ir      30.57446320      26.15284289      19.03904466      -0.00396928      -0.00269479      -0.00681514
Ir      28.38821870      24.78104300      18.25757083      -0.00361478      -0.00170131       0.00182511
Ir      30.59959541      28.90915407      19.02513678      -0.00522327       0.00750875       0.00010344
Ir      28.39445014      27.51838811      18.16655454      -0.00198998       0.00148216      -0.00505623
Ir      28.37339816      30.26683534      18.21922328      -0.00101522      -0.00794642       0.00091462
Ir      19.59432771      24.78038200      32.40483818       0.00379448       0.00736207       0.00124839
Ir      21.75934790      23.41407147      33.27923086       0.00358392      -0.00254968       0.00657509
Ir      23.94931039      22.08060951      34.08705672      -0.00145285       0.00148456       0.00079495
Ir      19.56950416      27.51659616      32.38973878       0.00390199      -0.00293519      -0.00396322
Ir      21.74486648      26.13984597      33.29554721      -0.00431842       0.00260893       0.00228707
Ir      23.95129743      24.78453347      34.15209709       0.00433515      -0.00338970      -0.00034102
Ir      21.74674865      28.86756795      33.28164976       0.00270323       0.00080065      -0.00470188
Ir      24.00742396      27.54194222      34.15104290      -0.00142123       0.00099456      -0.00318533
Ir      23.98674305      30.17901639      34.08219726       0.00085089      -0.00258962       0.00334767
Ir      19.60943027      24.79845107      19.87607202       0.00483912       0.00106527       0.00329630
Ir      21.75295408      23.43672282      19.01216212      -0.00146841       0.00093392       0.00465506
Ir      23.95298491      22.10334905      18.19638711      -0.00115576       0.00046636      -0.00178197
Ir      19.59728338      27.56962031      19.87497499      -0.00191484      -0.00197326       0.00070588
Ir      21.75123716      26.17672086      18.99545289      -0.00005387      -0.00068864       0.00419832
Ir      23.98346417      24.80939804      18.15756969      -0.00339747       0.00272745      -0.00023063
Ir      21.78265404      28.92920805      19.01338469       0.00375938      -0.00049387      -0.00389846
Ir      23.96389885      27.53218232      18.16939672      -0.00056030      -0.00043176       0.00148878
Ir      23.94790532      30.26449318      18.23818791      -0.00112072       0.00047540       0.00338508
Ir      32.42565397      32.74058324      24.81071826       0.01056265      -0.00339866      -0.00139738
Ir      33.30753125      30.58358059      23.44744079      -0.00332910      -0.00104259      -0.00594638
Ir      34.11008717      28.38445154      22.11748077       0.00055015       0.00562358      -0.00492185
Ir      32.44139207      32.73642137      27.54785721      -0.00320804      -0.00848445       0.00205854
Ir      33.31503825      30.59114690      26.16611354       0.00069670       0.00353268       0.00284238
Ir      34.16292462      28.38541791      24.80314783       0.00381419      -0.00081400      -0.00008018
Ir      33.31319978      30.59640657      28.90608700       0.00190681      -0.00414541       0.00687848
Ir      34.16469289      28.37829840      27.52581345       0.00027993      -0.00186589      -0.00763954
Ir      34.09909299      28.38725543      30.22529828      -0.00401703       0.00357419       0.00395214
Ir      19.88075462      32.79010446      24.71900939       0.00889972       0.00198187       0.00034085
Ir      19.01747978      30.62112486      23.39539247       0.00081955      -0.00197282       0.00214667
Ir      18.22863516      28.40242071      22.06850429       0.00020026      -0.00572437      -0.00515833
Ir      19.87119584      32.74610716      27.50303419       0.00176097       0.00260134      -0.00836254
Ir      19.00588320      30.61809171      26.10119169       0.00444215       0.00331110      -0.00357500
Ir      18.16037843      28.39102802      24.77616398       0.00843829      -0.00470593      -0.00077894
Ir      19.02212835      30.57812322      28.86622265       0.00903976       0.00135258      -0.00034346
Ir      18.16322452      28.38748971      27.50976292       0.00321227      -0.00170685       0.00142379
Ir      18.20812976      28.35254169      30.21140934      -0.00284117      -0.00055078       0.00790440
Ir      32.45505062      19.59464558      24.79606283      -0.00505875      -0.00504377       0.00143981
Ir      33.33318595      21.75484816      23.43368144       0.00522324      -0.00882392       0.00184920
Ir      34.11006039      23.95862138      22.10928088       0.00418204       0.00468330      -0.00230600
Ir      32.46399052      19.59540781      27.54193696       0.00551076       0.00081349       0.00034231
Ir      33.32888547      21.75578905      26.17334698       0.00266920      -0.00538369      -0.00386634
Ir      34.18663564      23.96945778      24.80490022      -0.00132141      -0.00470109       0.00449729
Ir      33.32829862      21.74422990      28.90569222       0.00597802       0.00189820      -0.00438791
Ir      34.15377731      23.96516779      27.53210917       0.00217094      -0.00830542      -0.00081564
Ir      34.10320789      23.95288923      30.23222153       0.00722247       0.00053442       0.00550192
Ir      19.89814322      19.57419166      24.76231070       0.00027405      -0.00200316      -0.00204147
Ir      19.02339115      21.72993368      23.39641793      -0.00091710      -0.00094894      -0.00285960
Ir      18.21781372      23.93220968      22.07746276       0.00153403       0.00566949      -0.00039706
Ir      19.89803303      19.57749033      27.50344523       0.00329243       0.00183373       0.00490257
Ir      19.02006944      21.74093832      26.12993861       0.00054646       0.00272674      -0.00129731
Ir      18.16218456      23.94260352      24.76422698       0.00156751       0.00194604      -0.00103761
Ir      19.04087285      21.73746255      28.84787386       0.00104201      -0.00241987       0.00341840
Ir      18.17830552      23.95620316      27.49239092      -0.00197712      -0.00344425      -0.00145587
Ir      18.22888903      23.93887733      30.18831057      -0.00144361      -0.00080928       0.00065586
Ir      24.79318933      32.40329913      32.72853452       0.00418806       0.00612313       0.00048256
Ir      23.43128089      33.30805608      30.56316926       0.00167865      -0.00170180       0.00466767
Ir      22.10366524      34.10736983      28.36115297      -0.00959945      -0.00439728      -0.00732803
Ir      27.52356629      32.40710455      32.74100708      -0.00760742      -0.00020805      -0.00282450
Ir      26.17188733      33.30594488      30.59599854       0.00129686       0.00293329       0.00144026
Ir      24.80052210      34.15475454      28.36834947       0.00429609      -0.00229996       0.00084640
Ir      28.91351167      33.31360384      30.58496421       0.00125102      -0.00111756       0.00082767
Ir      27.53411978      34.15751102      28.39551081       0.00136700      -0.00193491      -0.00545712
Ir      30.24360991      34.09636506      28.40369169      -0.00515476       0.00013418       0.00294688
Ir      24.80939848      19.85450464      32.72776409      -0.01063949       0.00411496       0.00450874
Ir      23.46149946      18.99327070      30.56822394      -0.00490614      -0.00576444       0.00386760
Ir      22.11671399      18.19897751      28.36038123       0.00000305       0.00318157       0.00505370
Ir      27.56132960      19.86930655      32.75156595       0.00389659       0.00604349       0.00164522
Ir      26.19335036      18.98588482      30.58257130       0.00881453       0.00158565       0.01407397
Ir      24.82287399      18.14755796      28.37386547      -0.00591376       0.00337699       0.00410035
Ir      28.92274847      18.98822965      30.61103265       0.00295544       0.00155663       0.00340240
Ir      27.55969461      18.13619116      28.38198591      -0.00470211       0.00266371      -0.00041468
Ir      30.26190092      18.20298141      28.39254723      -0.00017931       0.00326316      -0.01120298
Ir      24.76373306      32.46580080      19.55637543      -0.00284605       0.00006647       0.00029474
Ir      23.41538715      33.35496517      21.68701038       0.00152071       0.00111420       0.00706923
Ir      22.05167191      34.17019629      23.88729930      -0.00270546      -0.00813455       0.00220779
Ir      27.55213610      32.44989920      19.58208939      -0.00166321       0.00072703      -0.00398817
Ir      26.14954480      33.36148090      21.72878340       0.00078054      -0.00084849       0.00024151
Ir      24.78735604      34.20550007      23.93321212       0.00246617      -0.00418624       0.00584639
Ir      28.88928853      33.32646235      21.75430877       0.00275614      -0.00424579      -0.00126436
Ir      27.52309152      34.17457941      23.95533516       0.00653613      -0.00395456       0.00315362
Ir      30.22248681      34.10816100      23.97409537       0.00112482       0.00097787      -0.00357112
Ir      24.79576124      19.87290064      19.58636435      -0.00331160      -0.00133401      -0.00432575
Ir      23.41755826      19.00910308      21.72009757      -0.00050326      -0.00804207      -0.00744016
Ir      22.11240683      18.21939450      23.92433741       0.00047433      -0.00207411      -0.00281425
Ir      27.56089775      19.90974661      19.57756363      -0.00045112      -0.00157296       0.00108349
Ir      26.18227939      19.00314567      21.71970497      -0.00005259      -0.00012611      -0.00001031
Ir      24.80870506      18.16683052      23.93331667      -0.00276498       0.00459637       0.00317594
Ir      28.90786645      19.03445614      21.75360741       0.00234404      -0.00646743      -0.00000542